! AWR Design Environment (12506) Thu Aug  4 13:45:01 2022
! Document = 'Schematic 1'
! nPorts: 2, nXvals: 641

# MHz S RI R 50
!Freq ReS11 ImS11 ReS21 ImS21 ReS12 ImS12 ReS22 ImS22 
12160 0.509747 0.85711 5.253811e-05 -2.316192e-05 5.253811e-05 -2.316192e-05 0.6446525 0.7610419 
12160.5 0.51226945 0.85601122 -0.00011989955 0.00018618042 -0.00011989955 0.00018618042 0.64572478 0.76064742 
12161 0.5138452 0.855704 -3.334732e-06 -7.406766e-05 -3.334732e-06 -7.406766e-05 0.64634265 0.75951415 
12161.5 0.5151649 0.85508265 8.0716145e-05 -6.230605e-06 8.0716145e-05 -6.230605e-06 0.64745918 0.75859532 
12162 0.5162174 0.8542874 0.0001715402 -0.0001502208 0.0001715402 -0.0001502208 0.6489072 0.7576616 
12162.5 0.51827473 0.85317065 -0.00010163815 0.00015520792 -0.00010163815 0.00015520792 0.6497881 0.7572799 
12163 0.5192252 0.8519527 -4.0738561e-05 -1.3715385e-05 -4.0738561e-05 -1.3715385e-05 0.6506089 0.7555533 
12163.5 0.52077975 0.85068922 5.477914e-05 -0.00023776626 5.477914e-05 -0.00023776626 0.652502 0.75512435 
12164 0.5227222 0.8495564 -0.0001296176 0.0001871605 -0.0001296176 0.0001871605 0.6530035 0.7539889 
12164.5 0.52436615 0.84918737 -0.00010578372 0.0001185063 -0.00010578372 0.0001185063 0.65430483 0.75322982 
12165 0.52524235 0.84765585 8.659285e-05 -0.00021224055 8.659285e-05 -0.00021224055 0.6553494 0.75272575 
12165.5 0.52709853 0.8469893 -7.3847305e-05 -0.00023810032 -7.3847305e-05 -0.00023810032 0.65626573 0.75156332 
12166 0.5286312 0.8454497 -0.0001550712 -0.0001504894 -0.0001550712 -0.0001504894 0.656819 0.7500958 
12166.5 0.5300674 0.8443044 -0.00015696016 4.9908728e-05 -0.00015696016 4.9908728e-05 0.65821295 0.74915492 
12167 0.5316998 0.84397295 -5.8585175e-05 -1.7620695e-05 -5.8585175e-05 -1.7620695e-05 0.65928945 0.7482281 
12167.5 0.53316838 0.84350937 -3.5812175e-06 0.00011739395 -3.5812175e-06 0.00011739395 0.66108263 0.74798687 
12168 0.534798 0.8425018 7.654451e-05 3.807473e-05 7.654451e-05 3.807473e-05 0.6615835 0.7462069 
12168.5 0.5360085 0.84149935 -2.1875308e-05 7.201851e-05 -2.1875308e-05 7.201851e-05 0.66272358 0.74507027 
12169 0.537602 0.83971345 5.256914e-05 -5.126e-06 5.256914e-05 -5.126e-06 0.6642154 0.7449773 
12169.5 0.53944 0.83900867 5.9232852e-05 -0.0001117125 5.9232852e-05 -0.0001117125 0.66483343 0.7431047 
12170 0.5407439 0.8381579 7.457866e-05 -0.0001443755 7.457866e-05 -0.0001443755 0.6661483 0.7424023 
12170.5 0.54283635 0.83679562 -0.0001697918 -7.6392887e-05 -0.0001697918 -7.6392887e-05 0.66716718 0.74194617 
12171 0.54449005 0.8362972 9.7879453e-05 -9.051064e-05 9.7879453e-05 -9.051064e-05 0.6683206 0.74016785 
12171.5 0.54580863 0.83482385 -5.3794328e-05 2.378011e-05 -5.3794328e-05 2.378011e-05 0.66933755 0.7391642 
12172 0.5472129 0.8337622 0.0002212238 0.00016289 0.0002212238 0.00016289 0.6709464 0.7383574 
12172.5 0.54924385 0.83277017 9.2956837e-05 0.00020879465 9.2956837e-05 0.00020879465 0.67121453 0.73700632 
12173 0.55079275 0.83228375 -0.00014077255 -3.820817e-05 -0.00014077255 -3.820817e-05 0.6730583 0.73625955 
12173.5 0.55136525 0.8305358 8.432635e-05 5.5487425e-05 8.432635e-05 5.5487425e-05 0.67434578 0.7351399 
12174 0.5535262 0.8289033 -9.316711e-05 1.049183e-05 -9.316711e-05 1.049183e-05 0.6753859 0.7333731 
12174.5 0.55481123 0.8279263 -0.00011586159 4.895445e-05 -0.00011586159 4.895445e-05 0.67601735 0.7321185 
12175 0.55617995 0.82751865 0.00014125326 1.734151e-05 0.00014125326 1.734151e-05 0.6768995 0.7317976 
12175.5 0.55800858 0.82627007 8.083542e-05 -5.035756e-05 8.083542e-05 -5.035756e-05 0.67882555 0.73055355 
12176 0.5599192 0.8252723 8.508936e-05 0.0002989027 8.508936e-05 0.0002989027 0.6802226 0.7300636 
12176.5 0.5610826 0.82415582 1.3574433e-05 -9.4061725e-05 1.3574433e-05 -9.4061725e-05 0.68042185 0.72842345 
12177 0.56311325 0.82310655 5.5229385e-05 -9.50108e-05 5.5229385e-05 -9.50108e-05 0.68188315 0.7276309 
12177.5 0.56435885 0.82092877 6.5973548e-05 5.5158782e-05 6.5973548e-05 5.5158782e-05 0.6831753 0.7263031 
12178 0.5663621 0.8202952 -0.0001576513 0.0001714723 -0.0001576513 0.0001714723 0.6838897 0.7248036 
12178.5 0.56819663 0.81982315 -0.00014277635 -0.00018785852 -0.00014277635 -0.00018785852 0.68528543 0.7239303 
12179 0.56956465 0.81852235 3.503911e-05 -4.166877e-05 3.503911e-05 -4.166877e-05 0.68676245 0.72262375 
12179.5 0.57104328 0.81706477 -8.77879e-07 5.5166517e-05 -8.77879e-07 5.5166517e-05 0.68779205 0.72153402 
12180 0.5731556 0.8152447 -0.0001502128 0.0001378265 -0.0001502128 0.0001378265 0.68988 0.7202253 
12180.5 0.57414515 0.8149006 5.80243e-05 4.9371575e-05 5.80243e-05 4.9371575e-05 0.6905912 0.71939722 
12181 0.57665585 0.81405725 3.146671e-05 -3.07776e-05 3.146671e-05 -3.07776e-05 0.6909981 0.7178416 
12181.5 0.57760185 0.81182 0.00010912597 7.1474825e-05 0.00010912597 7.1474825e-05 0.69272488 0.71680585 
12182 0.5795866 0.8108937 -6.202974e-05 -3.644528e-05 -6.202974e-05 -3.644528e-05 0.6938578 0.7154188 
12182.5 0.58144208 0.81025652 3.2356928e-05 8.4933775e-05 3.2356928e-05 8.4933775e-05 0.69477913 0.7139064 
12183 0.58292335 0.80858135 -2.6474625e-05 6.268524e-05 -2.6474625e-05 6.268524e-05 0.69648185 0.71365865 
12183.5 0.58450205 0.80712727 0.0002526439 1.2060517e-05 0.0002526439 1.2060517e-05 0.69777458 0.71169117 
12184 0.5863631 0.8060994 -6.985161e-05 -9.780681e-05 -6.985161e-05 -9.780681e-05 0.6988244 0.710988 
12184.5 0.5879173 0.8049985 0.00015755019 0.00012141874 0.00015755019 0.00012141874 0.700191 0.70987827 
12185 0.59050165 0.80420345 7.5394159e-05 -2.9390742e-05 7.5394159e-05 -2.9390742e-05 0.7012895 0.70841435 
12185.5 0.59106813 0.80198947 -5.905878e-05 9.0402367e-05 -5.905878e-05 9.0402367e-05 0.70252305 0.70731405 
12186 0.5937386 0.800792 9.646224e-06 0.0001542184 9.646224e-06 0.0001542184 0.7039011 0.7058032 
12186.5 0.59498438 0.79896455 0.00010356142 5.2932025e-05 0.00010356142 5.2932025e-05 0.70527285 0.70390757 
12187 0.59688495 0.7981656 -3.81905e-06 -2.768115e-05 -3.81905e-06 -2.768115e-05 0.7061305 0.70353165 
12187.5 0.59818605 0.79676387 0.0003009049 -0.00014664923 0.0003009049 -0.00014664923 0.70705175 0.70235695 
12188 0.6005059 0.7954665 -1.088157e-05 -6.835676e-05 -1.088157e-05 -6.835676e-05 0.7090276 0.7008305 
12188.5 0.60177155 0.79434447 1.251808e-05 0.00014812743 1.251808e-05 0.00014812743 0.70999043 0.6990021 
12189 0.6035411 0.79327255 -0.00026988945 5.522285e-06 -0.00026988945 5.522285e-06 0.7113129 0.69807085 
12189.5 0.60563825 0.7918106 5.266675e-06 -5.5615368e-05 5.266675e-06 -5.5615368e-05 0.71239098 0.69666312 
12190 0.6068401 0.7897718 2.522004e-05 -1.899633e-05 2.522004e-05 -1.899633e-05 0.7137724 0.6950521 
12190.5 0.60930315 0.7888989 -3.4428871e-05 -5.4161237e-05 -3.4428871e-05 -5.4161237e-05 0.71530893 0.69388732 
12191 0.61098885 0.78698245 -0.00010114483 -4.834509e-05 -0.00010114483 -4.834509e-05 0.7165057 0.69350955 
12191.5 0.61215978 0.78540057 2.9695955e-05 -0.00013056392 2.9695955e-05 -0.00013056392 0.71768348 0.69096487 
12192 0.6142533 0.7848619 -7.219688e-05 4.911323e-05 -7.219688e-05 4.911323e-05 0.7185699 0.6898884 
12192.5 0.61671428 0.78319815 1.202557e-05 0.00011452772 1.202557e-05 0.00011452772 0.72046085 0.688289 
12193 0.61814515 0.78156515 0.00018876186 -0.00013686138 0.00018876186 -0.00013686138 0.72198225 0.6872989 
12193.5 0.61995818 0.77990255 3.6160583e-05 0.00017569393 3.6160583e-05 0.00017569393 0.72262148 0.68566555 
12194 0.6215356 0.7789308 0.0001042821 -4.079512e-05 0.0001042821 -4.079512e-05 0.7246504 0.6845349 
12194.5 0.62363553 0.7772799 7.1779723e-05 3.7955056e-05 7.1779723e-05 3.7955056e-05 0.7257105 0.68319127 
12195 0.6255192 0.77607295 -5.8588948e-05 -0.00014857937 -5.8588948e-05 -0.00014857937 0.7266719 0.6815398 
12195.5 0.62669113 0.77367685 4.1797057e-05 7.4735117e-05 4.1797057e-05 7.4735117e-05 0.72763708 0.6799236 
12196 0.6296883 0.7724152 2.666468e-05 -8.954118e-05 2.666468e-05 -8.954118e-05 0.7296154 0.6787927 
12196.5 0.63161485 0.77156255 0.00024765507 2.5650665e-05 0.00024765507 2.5650665e-05 0.7309284 0.6770618 
12197 0.6329693 0.769457 -5.0553945e-05 -7.8257098e-05 -5.0553945e-05 -7.8257098e-05 0.7324434 0.67514525 
12197.5 0.63518805 0.76822392 -2.6822856e-05 6.2378378e-05 -2.6822856e-05 6.2378378e-05 0.73411783 0.6739914 
12198 0.6365087 0.7665561 8.455409e-05 2.735709e-05 8.455409e-05 2.735709e-05 0.7346644 0.6724489 
12198.5 0.6388075 0.76493262 0.00014539553 -2.5093707e-05 0.00014539553 -2.5093707e-05 0.73645825 0.67106645 
12199 0.6408886 0.7633235 -2.1373895e-05 -9.7960915e-05 -2.1373895e-05 -9.7960915e-05 0.73777075 0.6694927 
12199.5 0.6419852 0.7617051 0.00019384722 -2.5301747e-05 0.00019384722 -2.5301747e-05 0.7392496 0.66785277 
12200 0.6445367 0.7600989 -3.175019e-05 -8.288914e-06 -3.175019e-05 -8.288914e-06 0.7407064 0.6665722 
12200.5 0.64669295 0.75885735 0.00022152022 -1.2984927e-05 0.00022152022 -1.2984927e-05 0.74242348 0.66507407 
12201 0.64855155 0.75653355 8.1817695e-05 -7.4526065e-05 8.1817695e-05 -7.4526065e-05 0.74323585 0.6636193 
12201.5 0.64964775 0.75483032 -5.5216875e-05 -0.00018647222 -5.5216875e-05 -0.00018647222 0.74476548 0.6615914 
12202 0.6523189 0.7536424 1.05524e-05 8.970022e-05 1.05524e-05 8.970022e-05 0.7458226 0.6595466 
12202.5 0.6536195 0.75147037 2.408404e-05 8.5934092e-05 2.408404e-05 8.5934092e-05 0.74801955 0.658351 
12203 0.65560465 0.7501592 7.8910045e-05 -5.7880145e-05 7.8910045e-05 -5.7880145e-05 0.74882405 0.65668715 
12203.5 0.65724118 0.74834642 6.8944237e-05 -0.00018057691 6.8944237e-05 -0.00018057691 0.75062768 0.6550491 
12204 0.6600433 0.74676 -7.065669e-05 -0.0001130231 -7.065669e-05 -0.0001130231 0.7519676 0.6529728 
12204.5 0.66181925 0.74439337 6.108001e-05 0.00011317613 6.108001e-05 0.00011317613 0.75321203 0.65153112 
12205 0.6634669 0.7431772 -7.5110637e-05 1.9040141e-05 -7.5110637e-05 1.9040141e-05 0.75489005 0.6501851 
12205.5 0.66580183 0.74024677 6.115273e-05 -8.0881625e-05 6.115273e-05 -8.0881625e-05 0.75667928 0.64823692 
12206 0.667314 0.7395 -2.416459e-05 -0.0001255018 -2.416459e-05 -0.0001255018 0.7576544 0.6465747 
12206.5 0.66985103 0.73706942 -0.00021290163 -1.357924e-05 -0.00021290163 -1.357924e-05 0.75922248 0.64499832 
12207 0.67146825 0.73534605 -3.84837e-05 9.047985e-06 -3.84837e-05 9.047985e-06 0.7607685 0.6428525 
12207.5 0.67358153 0.73336627 0.00019962135 -9.8724025e-05 0.00019962135 -9.8724025e-05 0.76200828 0.64117557 
12208 0.6752624 0.7317845 0.0001724771 -6.412416e-05 0.0001724771 -6.412416e-05 0.7632385 0.6393784 
12208.5 0.6781776 0.72954237 -1.4922602e-05 -0.00015830634 -1.4922602e-05 -0.00015830634 0.76471853 0.63792855 
12209 0.67955035 0.727584 0.00012771042 -2.120782e-05 0.00012771042 -2.120782e-05 0.7665718 0.63609425 
12209.5 0.68148463 0.7260512 3.944242e-05 -9.1284032e-05 3.944242e-05 -9.1284032e-05 0.76810045 0.63375767 
12210 0.6832815 0.7243163 0.0002253639 -0.000195104 0.0002253639 -0.000195104 0.7695347 0.6321855 
12210.5 0.6854717 0.72149237 7.247746e-05 -0.00011278102 7.247746e-05 -0.00011278102 0.7712404 0.6304152 
12211 0.68831545 0.7196533 1.7852085e-05 -7.518423e-05 1.7852085e-05 -7.518423e-05 0.7729486 0.62829935 
12211.5 0.68972273 0.71755525 1.466863e-05 -2.3360015e-05 1.466863e-05 -2.3360015e-05 0.7744778 0.6269196 
12212 0.6917463 0.7152978 -0.0001491648 5.938554e-05 -0.0001491648 5.938554e-05 0.7755719 0.6249226 
12212.5 0.69400065 0.7135884 0.0001541031 -0.0001200929 0.0001541031 -0.0001200929 0.77707955 0.62217882 
12213 0.6957915 0.71182835 3.828411e-05 2.9786735e-05 3.828411e-05 2.9786735e-05 0.7789813 0.62042885 
12213.5 0.69792615 0.70913557 0.00010976899 -0.00010303432 0.00010976899 -0.00010303432 0.78081168 0.61944582 
12214 0.7001933 0.7072385 2.476376e-06 -0.0001542528 2.476376e-06 -0.0001542528 0.7823752 0.6168195 
12214.5 0.7018911 0.70527892 -4.9445842e-05 -8.0706142e-05 -4.9445842e-05 -8.0706142e-05 0.7840839 0.61435297 
12215 0.70451855 0.70300395 0.00023752195 -0.00015509503 0.00023752195 -0.00015509503 0.7852299 0.61250115 
12215.5 0.70710708 0.70107592 1.3595795e-05 -0.00015251747 1.3595795e-05 -0.00015251747 0.78708618 0.61054555 
12216 0.7084365 0.6987321 0.0001608091 -7.23105e-05 0.0001608091 -7.23105e-05 0.7885084 0.6080756 
12216.5 0.71092135 0.69606472 0.000129764 -1.6037313e-05 0.000129764 -1.6037313e-05 0.79003433 0.6064916 
12217 0.7133163 0.69431935 1.9842054e-05 -9.6505745e-05 1.9842054e-05 -9.6505745e-05 0.79146965 0.6041265 
12217.5 0.71560073 0.69169585 0.00010025817 -3.476975e-06 0.00010025817 -3.476975e-06 0.79335473 0.60219727 
12218 0.7174459 0.6897083 -4.499175e-05 -0.0001665723 -4.499175e-05 -0.0001665723 0.794945 0.599826 
12218.5 0.71971298 0.68649795 5.7834877e-05 -0.00020867015 5.7834877e-05 -0.00020867015 0.79691268 0.59771032 
12219 0.72214695 0.68443845 1.097697e-05 -0.00012560159 1.097697e-05 -0.00012560159 0.79850495 0.59550375 
12219.5 0.72447453 0.68251572 -2.2851635e-05 -0.00016033608 -2.2851635e-05 -0.00016033608 0.80023525 0.59330467 
12220 0.7263781 0.6801852 -3.437535e-05 -0.0001095133 -3.437535e-05 -0.0001095133 0.8013182 0.5909838 
12220.5 0.72890798 0.67737172 0.00021916949 -0.00011606858 0.00021916949 -0.00011606858 0.80361248 0.58872075 
12221 0.73063475 0.6745022 3.1500035e-05 -0.00018031815 3.1500035e-05 -0.00018031815 0.8047489 0.5861014 
12221.5 0.73349908 0.67235047 9.6581247e-05 1.8994026e-05 9.6581247e-05 1.8994026e-05 0.80648315 0.58376275 
12222 0.7355294 0.6693817 0.0001711099 2.455276e-06 0.0001711099 2.455276e-06 0.8090382 0.5820708 
12222.5 0.73751713 0.66733057 8.967217e-05 -5.4104082e-05 8.967217e-05 -5.4104082e-05 0.81003615 0.57933697 
12223 0.7400619 0.6637758 8.9104895e-05 -7.933125e-05 8.9104895e-05 -7.933125e-05 0.81161875 0.57720605 
12223.5 0.74225893 0.6614646 2.8525132e-05 -0.00024425035 2.8525132e-05 -0.00024425035 0.81356688 0.57447475 
12224 0.7445056 0.6588002 7.109154e-05 6.508385e-05 7.109154e-05 6.508385e-05 0.8147603 0.5725225 
12224.5 0.74686608 0.6561498 9.673732e-05 1.406564e-05 9.673732e-05 1.406564e-05 0.81693573 0.569812 
12225 0.74920755 0.6539439 0.00012805097 -1.0254185e-06 0.00012805097 -1.0254185e-06 0.81897665 0.56682925 
12225.5 0.75150853 0.651241 8.36459e-05 -0.00016368278 8.36459e-05 -0.00016368278 0.82072015 0.56455902 
12226 0.7535682 0.6479816 0.0001686214 -0.0001879574 0.0001686214 -0.0001879574 0.8225636 0.5616976 
12226.5 0.75653305 0.64558535 0.00017880685 6.13888e-06 0.00017880685 6.13888e-06 0.82381155 0.55900602 
12227 0.75856585 0.64235825 0.00012864125 -3.48315e-06 0.00012864125 -3.48315e-06 0.82588445 0.55642955 
12227.5 0.76137475 0.63960095 -9.052991e-05 -0.00014668603 -9.052991e-05 -0.00014668603 0.8277965 0.55398247 
12228 0.7639224 0.6371984 8.892716e-06 -8.538273e-05 8.892716e-06 -8.538273e-05 0.8294924 0.55145 
12228.5 0.76559865 0.63350782 3.3778055e-05 -0.00011045568 3.3778055e-05 -0.00011045568 0.8312233 0.54796365 
12229 0.7684856 0.63121705 5.104863e-05 7.405238e-05 5.104863e-05 7.405238e-05 0.83307595 0.54476855 
12229.5 0.7706928 0.62794007 6.9100927e-05 -0.0001271541 6.9100927e-05 -0.0001271541 0.83544945 0.54301902 
12230 0.772755 0.6243639 -7.788717e-05 -0.0002288801 -7.788717e-05 -0.0002288801 0.836624 0.5395109 
12230.5 0.77528285 0.6211563 4.9927482e-05 -0.00021516473 4.9927482e-05 -0.00021516473 0.83902288 0.53715755 
12231 0.7774887 0.61831635 0.00018972372 -8.9122785e-05 0.00018972372 -8.9122785e-05 0.8405421 0.53419125 
12231.5 0.78004788 0.61551825 0.00016179497 -0.00025092264 0.00016179497 -0.00025092264 0.84299143 0.53118552 
12232 0.7826594 0.6115413 -1.656799e-05 -0.0001213492 -1.656799e-05 -0.0001213492 0.8444997 0.5287566 
12232.5 0.78533053 0.60823187 0.00020156547 -0.0002312162 0.00020156547 -0.0002312162 0.84630868 0.52528105 
12233 0.78749425 0.60512905 0.00011636532 -0.0003150198 0.00011636532 -0.0003150198 0.8480663 0.52206265 
12233.5 0.78960778 0.6024621 -3.1730138e-05 -0.0001374465 -3.1730138e-05 -0.0001374465 0.85039268 0.51896412 
12234 0.7931818 0.5991371 1.243104e-06 -0.0002110416 1.243104e-06 -0.0002110416 0.8509156 0.5160106 
12234.5 0.79472285 0.59495077 0.00020723543 -0.00012929995 0.00020723543 -0.00012929995 0.85330968 0.51248847 
12235 0.7973586 0.5916954 0.000106566 -0.00015511085 0.000106566 -0.00015511085 0.8559107 0.50950125 
12235.5 0.79991325 0.58808697 7.3746953e-05 -0.00023847155 7.3746953e-05 -0.00023847155 0.85724215 0.50620977 
12236 0.8031152 0.5848392 -1.941171e-05 -8.40869e-05 -1.941171e-05 -8.40869e-05 0.8594697 0.502207 
12236.5 0.80527353 0.58103132 5.1400155e-05 -0.0002892935 5.1400155e-05 -0.0002892935 0.8611731 0.4995156 
12237 0.8083035 0.577618 0.00016539654 -0.000226777 0.00016539654 -0.000226777 0.86307785 0.49568465 
12237.5 0.81116878 0.5729989 0.00012506345 -0.00021300273 0.00012506345 -0.00021300273 0.86468048 0.49245195 
12238 0.8124942 0.5699319 0.0001340085 -0.0002239892 0.0001340085 -0.0002239892 0.8672546 0.488565 
12238.5 0.81553283 0.56555142 8.9787455e-05 -0.00012506096 8.9787455e-05 -0.00012506096 0.8690816 0.48514645 
12239 0.8180417 0.561612 0.00018137965 -9.5208545e-05 0.00018137965 -9.5208545e-05 0.8715102 0.4814149 
12239.5 0.82073795 0.55792302 4.9849087e-05 -0.00033208858 4.9849087e-05 -0.00033208858 0.87295555 0.4781135 
12240 0.8232417 0.5536271 0.0001601317 -0.0002752686 0.0001601317 -0.0002752686 0.8752465 0.474609 
12240.5 0.82608453 0.54974787 0.00014866395 -0.0003188251 0.00014866395 -0.0003188251 0.87728448 0.47040945 
12241 0.82897685 0.54546515 0.0002180448 -0.00028225295 0.0002180448 -0.00028225295 0.879452 0.4665895 
12241.5 0.8315536 0.54097725 0.0002358427 -0.0002219135 0.0002358427 -0.0002219135 0.88179868 0.4629991 
12242 0.8336837 0.5373427 0.0001893554 -0.0003066158 0.0001893554 -0.0003066158 0.8832952 0.4580055 
12242.5 0.83688528 0.53252887 0.00017447415 -0.00039559832 0.00017447415 -0.00039559832 0.88503218 0.45437667 
12243 0.8402268 0.528057 0.0002286498 -0.00021964295 0.0002286498 -0.00021964295 0.88714625 0.451079 
12243.5 0.84248993 0.52408182 0.00024995615 -0.00049480522 0.00024995615 -0.00049480522 0.8891261 0.44666855 
12244 0.8455276 0.518748 0.0001399994 -0.0001392597 0.0001399994 -0.0001392597 0.8905957 0.4421641 
12244.5 0.84746433 0.51424325 7.303131e-05 -0.00036505585 7.303131e-05 -0.00036505585 0.89399235 0.4383813 
12245 0.85045135 0.51010385 8.0008125e-05 -0.00036764875 8.0008125e-05 -0.00036764875 0.89557785 0.4334973 
12245.5 0.85320108 0.50520732 0.00017819106 -0.00017593242 0.00017819106 -0.00017593242 0.8980128 0.42932752 
12246 0.856521 0.5002651 7.41049e-05 -0.0005701944 7.41049e-05 -0.0005701944 0.8998691 0.4247425 
12246.5 0.85893963 0.49534572 0.00027088122 -0.00048573947 0.00027088122 -0.00048573947 0.90151405 0.42042172 
12247 0.86174745 0.4908232 6.298079e-05 -0.0001772237 6.298079e-05 -0.0001772237 0.9037821 0.41621335 
12247.5 0.86439868 0.48534555 8.3632632e-05 -0.0002974358 8.3632632e-05 -0.0002974358 0.90570865 0.41123467 
12248 0.867146 0.4801037 -3.999815e-05 -0.0002322236 -3.999815e-05 -0.0002322236 0.9075361 0.4058906 
12248.5 0.86939933 0.47517402 5.732396e-05 -0.00042993362 5.732396e-05 -0.00042993362 0.91029925 0.40132125 
12249 0.87237385 0.47001265 0.0002917649 -0.0005921637 0.0002917649 -0.0005921637 0.9127099 0.3968353 
12249.5 0.8751601 0.4644825 0.00019661662 -0.0004345662 0.00019661662 -0.0004345662 0.91398728 0.3919314 
12250 0.877856 0.4585895 0.0002679569 -0.0003821139 0.0002679569 -0.0003821139 0.9161681 0.3868692 
12250.5 0.88142248 0.45320692 0.00028344732 -0.00057102327 0.00028344732 -0.00057102327 0.91864048 0.381012 
12251 0.8838256 0.44787835 7.808606e-05 -0.000289401 7.808606e-05 -0.000289401 0.92012825 0.3759023 
12251.5 0.8857657 0.44119885 5.7703895e-05 -0.00057242127 5.7703895e-05 -0.00057242127 0.9226793 0.3703794 
12252 0.8902097 0.4353751 6.233797e-05 -0.000784405 6.233797e-05 -0.000784405 0.924385 0.3645522 
12252.5 0.89258528 0.429791 0.00017303372 -0.00049495647 0.00017303372 -0.00049495647 0.92650903 0.35982405 
12253 0.8948108 0.42343895 0.00015823769 -0.0005424322 0.00015823769 -0.0005424322 0.92861455 0.35392275 
12253.5 0.89817165 0.4168846 0.00027907927 -0.00057087275 0.00027907927 -0.00057087275 0.93062875 0.34863217 
12254 0.8996585 0.4115905 0.0001370346 -0.000563442 0.0001370346 -0.000563442 0.933059 0.3421603 
12254.5 0.90349488 0.40452752 0.00027503907 -0.0005516679 0.00027503907 -0.0005516679 0.93421963 0.33660102 
12255 0.90633395 0.39766615 5.064752e-05 -0.00055194215 5.064752e-05 -0.00055194215 0.93697245 0.33016865 
12255.5 0.90874335 0.39084252 5.8321465e-05 -0.00065502462 5.8321465e-05 -0.00065502462 0.93887415 0.32491202 
12256 0.9123006 0.3842067 0.0001603612 -0.0007244844 0.0001603612 -0.0007244844 0.940967 0.3184736 
12256.5 0.91469205 0.37730655 0.00046196667 -0.00054503107 0.00046196667 -0.00054503107 0.94213725 0.31155262 
12257 0.91692215 0.36954285 0.00019433375 -0.00072064005 0.00019433375 -0.00072064005 0.9447025 0.30470705 
12257.5 0.9192293 0.3625695 0.00028132769 -0.000730459 0.00028132769 -0.000730459 0.9461877 0.29921495 
12258 0.9219657 0.3553461 0.0003134534 -0.000757421 0.0003134534 -0.000757421 0.9479518 0.291549 
12258.5 0.92544165 0.34795102 0.00019855495 -0.00073486645 0.00019855495 -0.00073486645 0.95075745 0.28498195 
12259 0.92766295 0.3402584 0.00012851722 -0.0009339744 0.00012851722 -0.0009339744 0.95274585 0.27760775 
12259.5 0.9309201 0.33221082 0.00018264882 -0.0010015651 0.00018264882 -0.0010015651 0.954534 0.27080592 
12260 0.9336442 0.3241225 0.0002348872 -0.001074621 0.0002348872 -0.001074621 0.9561155 0.2635091 
12260.5 0.93555715 0.315369 0.00011007994 -0.001107245 0.00011007994 -0.001107245 0.9578306 0.25591017 
12261 0.9378061 0.3078842 0.0003064506 -0.0010366725 0.0003064506 -0.0010366725 0.9595413 0.2482727 
12261.5 0.94126163 0.29893347 0.00034688375 -0.0012513907 0.00034688375 -0.0012513907 0.9610951 0.24043857 
12262 0.9438221 0.2906433 0.0002247401 -0.001275814 0.0002247401 -0.001275814 0.9637457 0.2323403 
12262.5 0.94529463 0.2811861 1.3429325e-05 -0.00117445 1.3429325e-05 -0.00117445 0.96540383 0.22449607 
12263 0.94814865 0.27162815 0.0002432435 -0.0013042675 0.0002432435 -0.0013042675 0.96669945 0.21596835 
12263.5 0.95014108 0.26294477 0.00026390575 -0.0011828185 0.00026390575 -0.0011828185 0.96842365 0.20744042 
12264 0.9529255 0.2525949 0.0003636435 -0.0007824465 0.0003636435 -0.0007824465 0.9707432 0.1987667 
12264.5 0.95446223 0.2428285 0.00011624545 -0.0014419772 0.00011624545 -0.0014419772 0.97217993 0.19029087 
12265 0.957165 0.2336314 0.00021041945 -0.001481484 0.00021041945 -0.001481484 0.97272955 0.1812147 
12265.5 0.95907075 0.22337592 0.00015452695 -0.0014743582 0.00015452695 -0.0014743582 0.97528605 0.17138517 
12266 0.9614112 0.2126454 0.0001027483 -0.0012694 0.0001027483 -0.0012694 0.9754504 0.162446 
12266.5 0.96350583 0.20212572 2.300017e-05 -0.001440882 2.300017e-05 -0.001440882 0.97782698 0.15245965 
12267 0.9657538 0.1915907 0.00030738575 -0.0015623305 0.00030738575 -0.0015623305 0.978121 0.14276065 
12267.5 0.967209 0.18039742 0.00014561199 -0.0015184745 0.00014561199 -0.0015184745 0.98017218 0.13252045 
12268 0.9689432 0.1681513 0.0002274342 -0.001862359 0.0002274342 -0.001862359 0.9803639 0.1228822 
12268.5 0.97134033 0.1569004 0.00023911945 -0.0018597172 0.00023911945 -0.0018597172 0.98258783 0.1119469 
12269 0.9723613 0.1448578 0.00022873139 -0.001912708 0.00022873139 -0.001912708 0.9834746 0.10046746 
12269.5 0.97340458 0.1321963 0.00011463632 -0.0021131015 0.00011463632 -0.0021131015 0.9834401 0.089723597 
12270 0.9747388 0.1201095 0.000184483 -0.002086268 0.000184483 -0.002086268 0.9847831 0.07830952 
12270.5 0.97569958 0.10811782 -3.0991012e-05 -0.0021504017 -3.0991012e-05 -0.0021504017 0.98501603 0.06720872 
12271 0.9766871 0.094390085 7.62652e-05 -0.002246629 7.62652e-05 -0.002246629 0.985069 0.054867985 
12271.5 0.97682463 0.080531397 5.4654483e-05 -0.0021667742 5.4654483e-05 -0.0021667742 0.98610333 0.042709717 
12272 0.977937 0.06649374 -6.22825e-05 -0.002432963 -6.22825e-05 -0.002432963 0.9853727 0.02924329 
12272.5 0.97839158 0.052190957 -0.00044622307 -0.002678566 -0.00044622307 -0.002678566 0.98552148 0.017303125 
12273 0.97826885 0.0375867 -0.00013528917 -0.0026330575 -0.00013528917 -0.0026330575 0.98540095 0.004655206 
12273.5 0.97757955 0.023040012 -3.660201e-05 -0.0028507432 -3.660201e-05 -0.0028507432 0.98504573 -0.0092972235 
12274 0.9774749 0.007166727 -0.0004764193 -0.00278063 -0.0004764193 -0.00278063 0.9848413 -0.02311479 
12274.5 0.97727038 -0.0084649922 -0.0003023959 -0.0029338732 -0.0003023959 -0.0029338732 0.98306283 -0.037518847 
12275 0.9765316 -0.025235375 -0.00041941725 -0.0032820495 -0.00041941725 -0.0032820495 0.98209845 -0.05203164 
12275.5 0.9750608 -0.041611233 -0.0004564192 -0.003533942 -0.0004564192 -0.003533942 0.9807717 -0.06753606 
12276 0.9730527 -0.0589326 -0.0005246271 -0.003578412 -0.0005246271 -0.003578412 0.9786839 -0.0826648 
12276.5 0.97053978 -0.075993362 -0.00068167345 -0.0035857027 -0.00068167345 -0.0035857027 0.97656483 -0.099033227 
12277 0.96889785 -0.094627885 -0.00067955315 -0.0039008375 -0.00067955315 -0.0039008375 0.97468795 -0.11529135 
12277.5 0.96614953 -0.11287317 -0.0008697396 -0.0042856892 -0.0008697396 -0.0042856892 0.97153023 -0.13184782 
12278 0.9630172 -0.1319327 -0.0009492278 -0.00424298 -0.0009492278 -0.00424298 0.9693256 -0.1501819 
12278.5 0.95901073 -0.15130342 -0.00085874525 -0.0042967167 -0.00085874525 -0.0042967167 0.96512563 -0.1668258 
12279 0.9546615 -0.1714322 -0.0010662794 -0.004637191 -0.0010662794 -0.004637191 0.9613073 -0.18524775 
12279.5 0.94936698 -0.1921264 -0.0013691447 -0.0049920737 -0.0013691447 -0.0049920737 0.9568673 -0.20403702 
12280 0.9444841 -0.2134412 -0.001830682 -0.005115499 -0.001830682 -0.005115499 0.951664 -0.2233898 
12280.5 0.93713198 -0.2357479 -0.0019013702 -0.0052279155 -0.0019013702 -0.0052279155 0.94617825 -0.2430192 
12281 0.9300869 -0.2576962 -0.001858909 -0.0052921075 -0.001858909 -0.0052921075 0.9392566 -0.2632831 
12281.5 0.9220989 -0.28119175 -0.0022498625 -0.0056055667 -0.0022498625 -0.0056055667 0.93254668 -0.28465587 
12282 0.9132103 -0.3039385 -0.00246229 -0.006003266 -0.00246229 -0.006003266 0.9245831 -0.3063386 
12282.5 0.9023293 -0.3287468 -0.0027237245 -0.0061475697 -0.0027237245 -0.0061475697 0.915893 -0.3281165 
12283 0.89140125 -0.35335615 -0.003147551 -0.0063825085 -0.003147551 -0.0063825085 0.9059848 -0.3504504 
12283.5 0.8786694 -0.37811252 -0.0031802345 -0.006659678 -0.0031802345 -0.006659678 0.89522995 -0.37392372 
12284 0.864835 -0.4047106 -0.003659948 -0.006633327 -0.003659948 -0.006633327 0.883122 -0.3979581 
12284.5 0.84934683 -0.43091135 -0.0042725822 -0.0067745685 -0.0042725822 -0.0067745685 0.8700463 -0.4227004 
12285 0.8321666 -0.45856925 -0.004437143 -0.0070209155 -0.004437143 -0.0070209155 0.85610425 -0.44807835 
12285.5 0.81405818 -0.48668212 -0.0048486372 -0.0072464177 -0.0048486372 -0.0072464177 0.8402144 -0.4744225 
12286 0.792616 -0.5147405 -0.005687164 -0.00754111 -0.005687164 -0.00754111 0.821877 -0.5000489 
12286.5 0.76962508 -0.5439294 -0.005996797 -0.0075564577 -0.005996797 -0.0075564577 0.80211998 -0.52743505 
12287 0.7448684 -0.57213655 -0.006303182 -0.007532165 -0.006303182 -0.007532165 0.78085705 -0.5555082 
12287.5 0.7162947 -0.6013638 -0.0068048115 -0.0074614875 -0.0068048115 -0.0074614875 0.75728878 -0.58388795 
12288 0.6851362 -0.6320279 -0.00685114 -0.007768407 -0.00685114 -0.007768407 0.7313237 -0.6118588 
12288.5 0.65071465 -0.66009205 -0.007414257 -0.0075038037 -0.007414257 -0.0075038037 0.70231685 -0.64077987 
12289 0.612584 -0.68942195 -0.007463253 -0.0073238175 -0.007463253 -0.0073238175 0.6704842 -0.6694923 
12289.5 0.57061268 -0.71767575 -0.0071895962 -0.006941876 -0.0071895962 -0.006941876 0.63429463 -0.69851292 
12290 0.5240434 -0.7447366 -0.007008674 -0.006530127 -0.007008674 -0.006530127 0.5952154 -0.7274078 
12290.5 0.4731871 -0.76997482 -0.0062430052 -0.0064131612 -0.0062430052 -0.0064131612 0.5512122 -0.7542798 
12291 0.41622965 -0.7937127 -0.0047781395 -0.00595456 -0.0047781395 -0.00595456 0.5035996 -0.7812037 
12291.5 0.35357515 -0.8135994 -0.0028350135 -0.006174931 -0.0028350135 -0.006174931 0.4502318 -0.80676057 
12292 0.28416 -0.8292173 0.0003840895 -0.006183742 0.0003840895 -0.006183742 0.390689 -0.8297074 
12292.5 0.2083094 -0.83935365 0.005010846 -0.007555183 0.005010846 -0.007555183 0.32435178 -0.84808972 
12293 0.12527055 -0.8409617 0.011102685 -0.010167827 0.011102685 -0.010167827 0.2506666 -0.8622492 
12293.5 0.034433538 -0.83225227 0.019205235 -0.015730855 0.019205235 -0.015730855 0.16967063 -0.86989852 
12294 -0.06320693 -0.8093143 0.02949426 -0.02528353 0.02949426 -0.02528353 0.07940865 -0.8659985 
12294.5 -0.16546117 -0.76770662 0.04128351 -0.041581185 0.04128351 -0.041581185 -0.017673672 -0.84954905 
12295 -0.2685136 -0.7007674 0.05272212 -0.06860717 0.05272212 -0.06860717 -0.12241105 -0.81384555 
12295.5 -0.36389617 -0.6038471 0.059005827 -0.11013722 0.059005827 -0.11013722 -0.22890562 -0.75271987 
12296 -0.4378578 -0.4730079 0.05056929 -0.1695348 0.05056929 -0.1695348 -0.327806 -0.6591555 
12296.5 -0.4684234 -0.3132045 0.010224549 -0.24426852 0.010224549 -0.24426852 -0.40202212 -0.53034965 
12297 -0.43540435 -0.14788255 -0.079740475 -0.3160369 -0.079740475 -0.3160369 -0.4292025 -0.3766486 
12297.5 -0.33791795 -0.019088517 -0.22279933 -0.34794565 -0.22279933 -0.34794565 -0.39560062 -0.2290593 
12298 -0.2107976 0.03919243 -0.3903437 -0.3048505 -0.3903437 -0.3048505 -0.3136888 -0.1235896 
12298.5 -0.1049824 0.030526005 -0.53071572 -0.18147158 -0.53071572 -0.18147158 -0.22143115 -0.07521993 
12299 -0.046736415 -0.008879345 -0.60855275 -0.009957358 -0.60855275 -0.009957358 -0.14968805 -0.067275165 
12299.5 -0.02905678 -0.04442106 -0.618923 0.17359858 -0.618923 0.17359858 -0.10593592 -0.075076165 